# vtk DataFile Version 2.0
CT Cylinder interface
ASCII

DATASET STRUCTURED_POINTS
DIMENSIONS	60	60	60
ORIGIN 0.000000 0.000000 0.000000
SPACING 0.100000 0.100000 0.100000

POINT_DATA	216000
SCALARS scalars float

LOOKUP_TABLE default
